% Model:              task2.mph
% Version:            COMSOL 5.4.0.225
% Date:               Jul 20 2019, 12:39
% Dimension:          2
% Nodes:              600
% Expressions:        1
% Description:        Dependent variable u
% Length unit:        m
% X                       Y                        u (1)
0                         0                        0
0.0010526315789473684     0                        1.108033240996973E-6
0.002105263157894737      0                        4.43213296398892E-6
0.003157894736842105      0                        9.972299168975072E-6
0.004210526315789474      0                        1.772853185595904E-5
0.005263157894736842      0                        2.770083102492262E-5
0.00631578947368421       0                        3.9889196675900376E-5
0.007368421052631579      0                        5.429362880886468E-5
0.008421052631578947      0                        7.091412742382471E-5
0.009473684210526315      0                        8.975069252076693E-5
0.010526315789473684      0                        1.1080332409972857E-4
0.011578947368421053      0                        1.340720221606701E-4
0.01263157894736842       0                        1.5955678670361533E-4
0.013684210526315788      0                        1.872576177285464E-4
0.014736842105263158      0                        2.1717451523547244E-4
0.015789473684210527      0                        2.493074792243717E-4
0.016842105263157894      0                        2.836565096952572E-4
0.017894736842105262      0                        3.2022160664819927E-4
0.01894736842105263       0                        -0.012101385041553125
0.02                      0                        0.5002
0                         0.0010344827586206897    1.0701545778823657E-6
0.0010526315789473684     0.0010344827586206897    0.004600240282889083
0.002105263157894737      0.0010344827586206897    0.009241658204183356
0.003157894736842105      0.0010344827586206897    0.014011578762869037
0.004210526315789474      0.0010344827586206897    0.018897681356529476
0.005263157894736842      0.0010344827586206897    0.02408618665592901
0.00631578947368421       0.0010344827586206897    0.029526238859331186
0.007368421052631579      0.0010344827586206897    0.03549724131488622
0.008421052631578947      0.0010344827586206897    0.04198796097210744
0.009473684210526315      0.0010344827586206897    0.049363497057434404
0.010526315789473684      0.0010344827586206897    0.057854457409857056
0.011578947368421053      0.0010344827586206897    0.06787229817298127
0.01263157894736842       0.0010344827586206897    0.08040236988366724
0.013684210526315788      0.0010344827586206897    0.09592329111416281
0.014736842105263158      0.0010344827586206897    0.11797224840916604
0.015789473684210527      0.0010344827586206897    0.14741453294905188
0.016842105263157894      0.0010344827586206897    0.1994160724349506
0.017894736842105262      0.0010344827586206897    0.285851030096382
0.01894736842105263       0.0010344827586206897    0.49414624727836104
0.02                      0.0010344827586206897    1.0083200951248512
0                         0.0020689655172413794    4.2806183115353115E-6
0.0010526315789473684     0.0020689655172413794    0.009158872177341485
0.002105263157894737      0.0020689655172413794    0.018390487194463345
0.003157894736842105      0.0020689655172413794    0.027835424144515068
0.004210526315789474      0.0020689655172413794    0.03761539513415823
0.005263157894736842      0.0020689655172413794    0.047803765053609226
0.00631578947368421       0.0020689655172413794    0.058677284321802865
0.007368421052631579      0.0020689655172413794    0.07036887327100506
0.008421052631578947      0.0020689655172413794    0.08324095889968444
0.009473684210526315      0.0020689655172413794    0.09767880508149572
0.010526315789473684      0.0020689655172413794    0.11420986471522451
0.011578947368421053      0.0020689655172413794    0.13382612189063395
0.01263157894736842       0.0020689655172413794    0.15742292777894296
0.013684210526315788      0.0020689655172413794    0.18768496838268828
0.014736842105263158      0.0020689655172413794    0.2266311515178545
0.015789473684210527      0.0020689655172413794    0.2818343928710746
0.016842105263157894      0.0020689655172413794    0.36286847662171084
0.017894736842105262      0.0020689655172413794    0.489188343466484
0.01894736842105263       0.0020689655172413794    0.7025828288355103
0.02                      0.0020689655172413794    1.0000000000000009
0                         0.0031034482758620693    9.631391200952738E-6
0.0010526315789473684     0.0031034482758620693    0.013607813386085854
0.002105263157894737      0.0031034482758620693    0.02735821701796884
0.003157894736842105      0.0031034482758620693    0.04135445094961739
0.004210526315789474      0.0031034482758620693    0.05582356006020667
0.005263157894736842      0.0031034482758620693    0.07092776975018956
0.00631578947368421       0.0031034482758620693    0.0869179125910729
0.007368421052631579      0.0031034482758620693    0.10409600004291404
0.008421052631578947      0.0031034482758620693    0.12286297510810029
0.009473684210526315      0.0031034482758620693    0.1438166315767506
0.010526315789473684      0.0031034482758620693    0.16758937685821068
0.011578947368421053      0.0031034482758620693    0.1954631582811393
0.01263157894736842       0.0031034482758620693    0.22857103437138668
0.013684210526315788      0.0031034482758620693    0.2697932293607016
0.014736842105263158      0.0031034482758620693    0.3217608077592769
0.015789473684210527      0.0031034482758620693    0.39116005911461166
0.016842105263157894      0.0031034482758620693    0.4835680175412588
0.017894736842105262      0.0031034482758620693    0.6146510040422295
0.01894736842105263       0.0031034482758620693    0.7857375122069872
0.02                      0.0031034482758620693    1.0000000000000009
0                         0.004137931034482759     1.712247324613902E-5
0.0010526315789473684     0.004137931034482759     0.017959053424988533
0.002105263157894737      0.004137931034482759     0.03602360393370468
0.003157894736842105      0.004137931034482759     0.05447321115888313
0.004210526315789474      0.004137931034482759     0.07347430197692703
0.005263157894736842      0.004137931034482759     0.09322648287984633
0.00631578947368421       0.004137931034482759     0.1140494482793272
0.007368421052631579      0.004137931034482759     0.13635711070065562
0.008421052631578947      0.004137931034482759     0.16053368765620202
0.009473684210526315      0.004137931034482759     0.18728880615396606
0.010526315789473684      0.004137931034482759     0.2173767673713132
0.011578947368421053      0.004137931034482759     0.2519887679717475
0.01263157894736842       0.004137931034482759     0.2926027779307623
0.013684210526315788      0.004137931034482759     0.34164258366885053
0.014736842105263158      0.004137931034482759     0.4014005036281632
0.015789473684210527      0.004137931034482759     0.4769940331166543
0.016842105263157894      0.004137931034482759     0.5710634772393718
0.017894736842105262      0.004137931034482759     0.6922812559002737
0.01894736842105263       0.004137931034482759     0.8384058665629215
0.02                      0.004137931034482759     0.9999999999999999
0                         0.005172413793103448     2.6753864447087665E-5
0.0010526315789473684     0.005172413793103448     0.022114019149648265
0.002105263157894737      0.005172413793103448     0.044406567185867864
0.003157894736842105      0.005172413793103448     0.06705887574778777
0.004210526315789474      0.005172413793103448     0.09032178409438678
0.005263157894736842      0.005172413793103448     0.11448474493966555
0.00631578947368421       0.005172413793103448     0.13983040631947505
0.007368421052631579      0.005172413793103448     0.16674783793122805
0.008421052631578947      0.005172413793103448     0.1957690503299628
0.009473684210526315      0.005172413793103448     0.2275160580368325
0.010526315789473684      0.005172413793103448     0.26284433076935393
0.011578947368421053      0.005172413793103448     0.30278187756774433
0.01263157894736842       0.005172413793103448     0.3487454683927683
0.013684210526315788      0.005172413793103448     0.4023812184040261
0.014736842105263158      0.005172413793103448     0.46650537739384457
0.015789473684210527      0.005172413793103448     0.5430469802395488
0.016842105263157894      0.005172413793103448     0.6346529243692305
0.017894736842105262      0.005172413793103448     0.7433240056540801
0.01894736842105263       0.005172413793103448     0.8663512912957321
0.02                      0.005172413793103448     0.9999999999999996
0                         0.0062068965517241385    3.852556480380015E-5
0.0010526315789473684     0.0062068965517241385    0.02613498695633906
0.002105263157894737      0.0062068965517241385    0.05237310971249336
0.003157894736842105      0.0062068965517241385    0.07906477414730237
0.004210526315789474      0.0062068965517241385    0.10640202343364545
0.005263157894736842      0.0062068965517241385    0.13457070397466536
0.00631578947368421       0.0062068965517241385    0.1640649457524854
0.007368421052631579      0.0062068965517241385    0.19515539334844983
0.008421052631578947      0.0062068965517241385    0.2283994277172187
0.009473684210526315      0.0062068965517241385    0.2643458396539912
0.010526315789473684      0.0062068965517241385    0.3038842368584338
0.011578947368421053      0.0062068965517241385    0.34782967230995554
0.01263157894736842       0.0062068965517241385    0.3975072053227789
0.013684210526315788      0.0062068965517241385    0.4540750363379276
0.014736842105263158      0.0062068965517241385    0.5194972091248378
0.015789473684210527      0.0062068965517241385    0.594524873164026
0.016842105263157894      0.0062068965517241385    0.6813181869220841
0.017894736842105262      0.0062068965517241385    0.7789786752948629
0.01894736842105263       0.0062068965517241385    0.8872729534543744
0.02                      0.0062068965517241385    0.9999999999999999
0                         0.007241379310344828     5.2437574316291416E-5
0.0010526315789473684     0.007241379310344828     0.02992599717482189
0.002105263157894737      0.007241379310344828     0.06000356113862628
0.003157894736842105      0.007241379310344828     0.09046402950929408
0.004210526315789474      0.007241379310344828     0.1215457331979304
0.005263157894736842      0.007241379310344828     0.1535430526758945
0.00631578947368421       0.007241379310344828     0.1867156731710375
0.007368421052631579      0.007241379310344828     0.2214968558808875
0.008421052631578947      0.007241379310344828     0.2583679464610201
0.009473684210526315      0.007241379310344828     0.2978300310562952
0.010526315789473684      0.007241379310344828     0.3406033191213221
0.011578947368421053      0.007241379310344828     0.38741563537467966
0.01263157894736842       0.007241379310344828     0.43934935170198286
0.013684210526315788      0.007241379310344828     0.4972197668523943
0.014736842105263158      0.007241379310344828     0.5623308491021277
0.015789473684210527      0.007241379310344828     0.6351561082833851
0.016842105263157894      0.007241379310344828     0.7164475245542714
0.017894736842105262      0.007241379310344828     0.8055959766931164
0.01894736842105263       0.007241379310344828     0.9008436676309031
0.02                      0.007241379310344828     1
0                         0.008275862068965517     6.848989298454222E-5
0.0010526315789473684     0.008275862068965517     0.03357524329363859
0.002105263157894737      0.008275862068965517     0.06721168749123647
0.003157894736842105      0.008275862068965517     0.10125503837620067
0.004210526315789474      0.008275862068965517     0.13589028727393618
0.005263157894736842      0.008275862068965517     0.1712822441308143
0.00631578947368421       0.008275862068965517     0.20785053891367605
0.007368421052631579      0.008275862068965517     0.2459265231977345
0.008421052631578947      0.008275862068965517     0.28577562692576647
0.009473684210526315      0.008275862068965517     0.3281054503748965
0.010526315789473684      0.008275862068965517     0.3734045675735669
0.011578947368421053      0.008275862068965517     0.4222215005250505
0.01263157894736842       0.008275862068965517     0.47547914659988466
0.013684210526315788      0.008275862068965517     0.5336966101998397
0.014736842105263158      0.008275862068965517     0.5975817570820778
0.015789473684210527      0.008275862068965517     0.6675224291500672
0.016842105263157894      0.008275862068965517     0.7436559790307504
0.017894736842105262      0.008275862068965517     0.8252797026676741
0.01894736842105263       0.008275862068965517     0.9117223260770674
0.02                      0.008275862068965517     1.0000000000000004
0                         0.009310344827586208     8.668252080857115E-5
0.0010526315789473684     0.009310344827586208     0.037022157906762714
0.002105263157894737      0.009310344827586208     0.07411038664099567
0.003157894736842105      0.009310344827586208     0.11150640788172439
0.004210526315789474      0.009310344827586208     0.1494002053410573
0.005263157894736842      0.009310344827586208     0.18801540816361134
0.00631578947368421       0.009310344827586208     0.22759075257737532
0.007368421052631579      0.009310344827586208     0.2684637950082861
0.008421052631578947      0.009310344827586208     0.3110060697776107
0.009473684210526315      0.009310344827586208     0.35557399802536205
0.010526315789473684      0.009310344827586208     0.40272862494020145
0.011578947368421053      0.009310344827586208     0.452852442614382
0.01263157894736842       0.009310344827586208     0.5066972887380994
0.013684210526315788      0.009310344827586208     0.5644786282860141
0.014736842105263158      0.009310344827586208     0.6268727762847448
0.015789473684210527      0.009310344827586208     0.6938634591069941
0.016842105263157894      0.009310344827586208     0.7654887422497049
0.017894736842105262      0.009310344827586208     0.8410768485233076
0.01894736842105263       0.009310344827586208     0.9196805088697224
0.02                      0.009310344827586208     1
0                         0.010344827586206896     1.0701545778834759E-4
0.0010526315789473684     0.010344827586206896     0.04035059762981468
0.002105263157894737      0.010344827586206896     0.08067688549351161
0.003157894736842105      0.010344827586206896     0.12126228631684932
0.004210526315789474      0.010344827586206896     0.16225185624934474
0.005263157894736842      0.010344827586206896     0.20375284343119693
0.00631578947368421       0.010344827586206896     0.24607133276273313
0.007368421052631579      0.010344827586206896     0.2894708549481347
0.008421052631578947      0.010344827586206896     0.3341168795095927
0.009473684210526315      0.010344827586206896     0.38054592908825513
0.010526315789473684      0.010344827586206896     0.429030768053413
0.011578947368421053      0.010344827586206896     0.4800544449784831
0.01263157894736842       0.010344827586206896     0.5338778516543169
0.013684210526315788      0.010344827586206896     0.5909702876635903
0.014736842105263158      0.010344827586206896     0.6515998673010208
0.015789473684210527      0.010344827586206896     0.7157025112892286
0.016842105263157894      0.010344827586206896     0.7831725747501772
0.017894736842105262      0.010344827586206896     0.8535582615669741
0.01894736842105263       0.010344827586206896     0.9263245795284014
0.02                      0.010344827586206896     0.9999999999999996
0                         0.011379310344827587     1.294887039239037E-4
0.0010526315789473684     0.011379310344827587     0.043555093689197355
0.002105263157894737      0.011379310344827587     0.08704341900768367
0.003157894736842105      0.011379310344827587     0.1306743397406475
0.004210526315789474      0.011379310344827587     0.17454545662025575
0.005263157894736842      0.011379310344827587     0.21879372470518593
0.00631578947368421       0.011379310344827587     0.2635793776967337
0.007368421052631579      0.011379310344827587     0.30913709284358326
0.008421052631578947      0.011379310344827587     0.3556973950673167
0.009473684210526315      0.011379310344827587     0.40356207060984045
0.010526315789473684      0.011379310344827587     0.45298341682353377
0.011578947368421053      0.011379310344827587     0.5044088623502064
0.01263157894736842       0.011379310344827587     0.5580342656142969
0.013684210526315788      0.011379310344827587     0.6141528773662199
0.014736842105263158      0.011379310344827587     0.6728655008548603
0.015789473684210527      0.011379310344827587     0.7342496538485641
0.016842105263157894      0.011379310344827587     0.7981354074503225
0.017894736842105262      0.011379310344827587     0.8640894925781095
0.01894736842105263       0.011379310344827587     0.9316413196147909
0.02                      0.011379310344827587     1
0                         0.012413793103448277     1.541022592152161E-4
0.0010526315789473684     0.012413793103448277     0.0467077109691271
0.002105263157894737      0.012413793103448277     0.09325622843776177
0.003157894736842105      0.012413793103448277     0.13982766009754338
0.004210526315789474      0.012413793103448277     0.18648926878923502
0.005263157894736842      0.012413793103448277     0.2332680566077799
0.00631578947368421       0.012413793103448277     0.28032864718253964
0.007368421052631579      0.012413793103448277     0.3278515519508907
0.008421052631578947      0.012413793103448277     0.3759545379503363
0.009473684210526315      0.012413793103448277     0.4249981655475149
0.010526315789473684      0.012413793103448277     0.47509134247262624
0.011578947368421053      0.012413793103448277     0.5265982579788074
0.01263157894736842       0.012413793103448277     0.5797304223594343
0.013684210526315788      0.012413793103448277     0.6346579330907788
0.014736842105263158      0.012413793103448277     0.691534161937051
0.015789473684210527      0.012413793103448277     0.7503328865406838
0.016842105263157894      0.012413793103448277     0.8108804893800965
0.017894736842105262      0.012413793103448277     0.8729714912689283
0.01894736842105263       0.012413793103448277     0.9362479258899428
0.02                      0.012413793103448277     1
0                         0.013448275862068966     1.8085612366231302E-4
0.0010526315789473684     0.013448275862068966     0.049853143685507285
0.002105263157894737      0.013448275862068966     0.09946506768136334
0.003157894736842105      0.013448275862068966     0.14895316856292784
0.004210526315789474      0.013448275862068966     0.19829241190512897
0.005263157894736842      0.013448275862068966     0.2475221578600756
0.00631578947368421       0.013448275862068966     0.29670005434041047
0.007368421052631579      0.013448275862068966     0.34594946745330707
0.008421052631578947      0.013448275862068966     0.39543124204193203
0.009473684210526315      0.013448275862068966     0.4453121708934129
0.010526315789473684      0.013448275862068966     0.49582705047493836
0.011578947368421053      0.013448275862068966     0.5472434567426322
0.01263157894736842       0.013448275862068966     0.5996865647807486
0.013684210526315788      0.013448275862068966     0.6533791597073736
0.014736842105263158      0.013448275862068966     0.7083493316352107
0.015789473684210527      0.013448275862068966     0.7646721384881454
0.016842105263157894      0.013448275862068966     0.8222471884252542
0.017894736842105262      0.013448275862068966     0.8808329214741172
0.01894736842105263       0.013448275862068966     0.9402279437205734
0.02                      0.013448275862068966     0.9999999999999996
0                         0.014482758620689656     2.0975029726517374E-4
0.0010526315789473684     0.014482758620689656     0.05306933050195069
0.002105263157894737      0.014482758620689656     0.10577970204302961
0.003157894736842105      0.014482758620689656     0.15817805401113602
0.004210526315789474      0.014482758620689656     0.21021154547528173
0.005263157894736842      0.014482758620689656     0.2618017949779684
0.00631578947368421       0.014482758620689656     0.3129729139222299
0.007368421052631579      0.014482758620689656     0.36383211037439245
0.008421052631578947      0.014482758620689656     0.4144464073705493
0.009473684210526315      0.014482758620689656     0.4650487149257586
0.010526315789473684      0.014482758620689656     0.5157604400849053
0.011578947368421053      0.014482758620689656     0.5668259481804027
0.01263157894736842       0.014482758620689656     0.6184426808760846
0.013684210526315788      0.014482758620689656     0.6707401524293416
0.014736842105263158      0.014482758620689656     0.7238413209076573
0.015789473684210527      0.014482758620689656     0.7777776480232328
0.016842105263157894      0.014482758620689656     0.8324880937566426
0.017894736842105262      0.014482758620689656     0.8879008106833507
0.01894736842105263       0.014482758620689656     0.9438381283376074
0.02                      0.014482758620689656     1
0                         0.015517241379310345     2.407847800237767E-4
0.0010526315789473684     0.015517241379310345     0.056434403002329755
0.002105263157894737      0.015517241379310345     0.11240068089851112
0.003157894736842105      0.015517241379310345     0.16783368292478562
0.004210526315789474      0.015517241379310345     0.2225598147900072
0.005263157894736842      0.015517241379310345     0.27651004091281994
0.00631578947368421       0.015517241379310345     0.3296209650601122
0.007368421052631579      0.015517241379310345     0.38192341202641533
0.008421052631578947      0.015517241379310345     0.43354370487997285
0.009473684210526315      0.015517241379310345     0.48461896254875475
0.010526315789473684      0.015517241379310345     0.5353224445372935
0.011578947368421053      0.015517241379310345     0.5859297795716245
0.01263157894736842       0.015517241379310345     0.636531389730649
0.013684210526315788      0.015517241379310345     0.6873855116015724
0.014736842105263158      0.015517241379310345     0.7385392669081781
0.015789473684210527      0.015517241379310345     0.7901117482307478
0.016842105263157894      0.015517241379310345     0.8421275538470202
0.017894736842105262      0.015517241379310345     0.8944959847526145
0.01894736842105263       0.015517241379310345     0.9471774685528432
0.02                      0.015517241379310345     1
0                         0.016551724137931035     2.739595719381588E-4
0.0010526315789473684     0.016551724137931035     0.06007599071383774
0.002105263157894737      0.016551724137931035     0.1194888424282136
0.003157894736842105      0.016551724137931035     0.178101158806581
0.004210526315789474      0.016551724137931035     0.23568458779372053
0.005263157894736842      0.016551724137931035     0.29201577276214397
0.00631578947368421       0.016551724137931035     0.3469977273518175
0.007368421052631579      0.016551724137931035     0.40069248616754877
0.008421052631578947      0.016551724137931035     0.4531387260582421
0.009473684210526315      0.016551724137931035     0.5045456686365728
0.010526315789473684      0.016551724137931035     0.555040288434946
0.011578947368421053      0.016551724137931035     0.6049398765983907
0.01263157894736842       0.016551724137931035     0.6544050775993742
0.013684210526315788      0.016551724137931035     0.703640890511978
0.014736842105263158      0.016551724137931035     0.752802076174238
0.015789473684210527      0.016551724137931035     0.8020126150172172
0.016842105263157894      0.016551724137931035     0.8513286647890352
0.017894736842105262      0.016551724137931035     0.9007887505633851
0.01894736842105263       0.016551724137931035     0.950366669397098
0.02                      0.016551724137931035     1
0                         0.017586206896551725     3.0927467300831846E-4
0.0010526315789473684     0.017586206896551725     0.06408379163004717
0.002105263157894737      0.017586206896551725     0.12738146631394515
0.003157894736842105      0.017586206896551725     0.18948666564674224
0.004210526315789474      0.017586206896551725     0.2500384685758745
0.005263157894736842      0.017586206896551725     0.3088412740999076
0.00631578947368421       0.017586206896551725     0.3657187158645616
0.007368421052631579      0.017586206896551725     0.42065578891210575
0.008421052631578947      0.017586206896551725     0.47375911130037546
0.009473684210526315      0.017586206896551725     0.5253027771544114
0.010526315789473684      0.017586206896551725     0.5754279891143677
0.011578947368421053      0.017586206896551725     0.6244136753743861
0.01263157894736842       0.017586206896551725     0.672490598464889
0.013684210526315788      0.017586206896551725     0.7200043693179446
0.014736842105263158      0.017586206896551725     0.7670454575563244
0.015789473684210527      0.017586206896551725     0.8137997728663385
0.016842105263157894      0.017586206896551725     0.860436657112569
0.017894736842105262      0.017586206896551725     0.906976060477254
0.01894736842105263       0.017586206896551725     0.9534883822111749
0.02                      0.017586206896551725     1.0000000000000002
0                         0.018620689655172416     3.467300832342449E-4
0.0010526315789473684     0.018620689655172416     0.06872547455915468
0.002105263157894737      0.018620689655172416     0.13628424255426821
0.003157894736842105      0.018620689655172416     0.20224830545439038
0.004210526315789474      0.018620689655172416     0.2661348610311193
0.005263157894736842      0.018620689655172416     0.32751780228368466
0.00631578947368421       0.018620689655172416     0.38622253798574857
0.007368421052631579      0.018620689655172416     0.44233003236698903
0.008421052631578947      0.018620689655172416     0.49600194877886333
0.009473684210526315      0.018620689655172416     0.5473223656958393
0.010526315789473684      0.018620689655172416     0.5968179609427212
0.011578947368421053      0.018620689655172416     0.6446464866808755
0.01263157894736842       0.018620689655172416     0.6912007959754015
0.013684210526315788      0.018620689655172416     0.7367383388603725
0.014736842105263158      0.018620689655172416     0.781502465569715
0.015789473684210527      0.018620689655172416     0.8257270559875991
0.016842105263157894      0.018620689655172416     0.8695693963655067
0.017894736842105262      0.018620689655172416     0.9131669248980625
0.01894736842105263       0.018620689655172416     0.9566181642730771
0.02                      0.018620689655172416     0.9999999999999998
0                         0.019655172413793102     3.863258026159334E-4
0.0010526315789473684     0.019655172413793102     0.07407216711769431
0.002105263157894737      0.019655172413793102     0.1468521953150914
0.003157894736842105      0.019655172413793102     0.2172331466257153
0.004210526315789474      0.019655172413793102     0.28470344447044216
0.005263157894736842      0.019655172413793102     0.3488279383559175
0.00631578947368421       0.019655172413793102     0.4094000085730922
0.007368421052631579      0.019655172413793102     0.46652944020072834
0.008421052631578947      0.019655172413793102     0.5203158295292591
0.009473684210526315      0.019655172413793102     0.5713043865417622
0.010526315789473684      0.019655172413793102     0.6198259121064854
0.011578947368421053      0.019655172413793102     0.6662133335412908
0.01263157894736842       0.019655172413793102     0.7108562327385154
0.013684210526315788      0.019655172413793102     0.754232943381189
0.014736842105263158      0.019655172413793102     0.7965298101064192
0.015789473684210527      0.019655172413793102     0.838002911287042
0.016842105263157894      0.019655172413793102     0.8789632234696216
0.017894736842105262      0.019655172413793102     0.9195150586438199
0.01894736842105263       0.019655172413793102     0.9598012981959039
0.02                      0.019655172413793102     0.9999999999999999
0                         0.020689655172413793     4.2806183115339923E-4
0.0010526315789473684     0.020689655172413793     0.0807423118593052
0.002105263157894737      0.020689655172413793     0.1593725646126326
0.003157894736842105      0.020689655172413793     0.2349084163207313
0.004210526315789474      0.020689655172413793     0.3065445889268997
0.005263157894736842      0.020689655172413793     0.37352705210314346
0.00631578947368421       0.020689655172413793     0.43587503076881556
0.007368421052631579      0.020689655172413793     0.49369880129803073
0.008421052631578947      0.020689655172413793     0.5475268724458415
0.009473684210526315      0.020689655172413793     0.5976551430689423
0.010526315789473684      0.020689655172413793     0.6448160347158349
0.011578947368421053      0.020689655172413793     0.689334740426054
0.01263157894736842       0.020689655172413793     0.7318455325116562
0.013684210526315788      0.020689655172413793     0.7726998063790231
0.014736842105263158      0.020689655172413793     0.8122487652311642
0.015789473684210527      0.020689655172413793     0.8508416837712154
0.016842105263157894      0.020689655172413793     0.8887008862433664
0.017894736842105262      0.020689655172413793     0.926060283029892
0.01894736842105263       0.020689655172413793     0.963111002924527
0.02                      0.020689655172413793     1.0000000000000002
0                         0.021724137931034483     4.719381688465985E-4
0.0010526315789473684     0.021724137931034483     0.0887423478376535